Ag_cluster.lmp (written by ASE) 

147 	 atoms 
2  atom types
0.0                      50  xlo xhi
0.0                      50  ylo yhi
0.0                      50  zlo zhi


Atoms 

     1   1                 14.1531      12.287800000000001                 13.8628
     2   1                 14.1531      14.329499999999999      15.904500000000001
     3   1      16.194800000000001      12.287800000000001      15.904500000000001
     4   1                 14.1531                  10.246      15.904500000000001
     5   1                 12.1113      12.287800000000001      15.904500000000001
     6   1                 14.1531      14.329499999999999                  11.821
     7   1      16.194800000000001      12.287800000000001                  11.821
     8   1                 14.1531                  10.246                  11.821
     9   1                 12.1113      12.287800000000001                  11.821
    10   1      16.194800000000001      14.329499999999999                 13.8628
    11   1      16.194800000000001                  10.246                 13.8628
    12   1                 12.1113                  10.246                 13.8628
    13   1                 12.1113      14.329499999999999                 13.8628
    14   1                 14.1531                 16.3352                 17.9102
    15   1      18.200500000000002      12.287800000000001                 17.9102
    16   1                 14.1531      8.2403999999999993                 17.9102
    17   1      10.105700000000001      12.287800000000001                 17.9102
    18   1                 14.1531                 16.3352      9.8154000000000003
    19   1      18.200500000000002      12.287800000000001      9.8154000000000003
    20   1                 14.1531      8.2403999999999993      9.8154000000000003
    21   1                 10.0581      12.287100000000001                  9.7721
    22   1      18.200500000000002                 16.3352                 13.8628
    23   1      18.200500000000002      8.2403999999999993                 13.8628
    24   1      10.105700000000001      8.2403999999999993                 13.8628
    25   1      10.105700000000001                 16.3352                 13.8628
    26   1      16.185300000000002                   14.32      17.968699999999998
    27   1      16.185300000000002      16.393699999999999                  15.895
    28   1                  18.259                   14.32                  15.895
    29   1      16.185300000000002      10.255599999999999      17.968699999999998
    30   1                  18.259      10.255599999999999                  15.895
    31   1      16.185300000000002      8.1819000000000006                  15.895
    32   1      12.120900000000001      10.255599999999999      17.968699999999998
    33   1      12.120900000000001      8.1819000000000006                  15.895
    34   1                 10.0472      10.255599999999999                  15.895
    35   1      12.120900000000001                   14.32      17.968699999999998
    36   1      12.120900000000001      16.393699999999999                  15.895
    37   1                 10.0472                   14.32                  15.895
    38   1      16.185300000000002                   14.32      9.7568999999999999
    39   1      16.185300000000002      16.393699999999999                 11.8306
    40   1                  18.259                   14.32                 11.8306
    41   1      16.185300000000002      10.255599999999999      9.7568999999999999
    42   1                  18.259      10.255599999999999                 11.8306
    43   1      16.185300000000002      8.1819000000000006                 11.8306
    44   1      12.120900000000001      10.255599999999999      9.7568999999999999
    45   1      12.120900000000001      8.1819000000000006                 11.8306
    46   1                 10.0472      10.255599999999999                 11.8306
    47   1      12.120900000000001                   14.32      9.7568999999999999
    48   1      12.120900000000001      16.393699999999999                 11.8306
    49   1                 10.0472                   14.32                 11.8306
    50   1                 14.1531      12.287800000000001      18.045300000000001
    51   1                 14.1531      12.287800000000001      9.6801999999999992
    52   1                 14.1531      16.470300000000002                 13.8628
    53   1                 14.1531                  8.1052                 13.8628
    54   1      9.9704999999999995      12.287800000000001                 13.8628
    55   1      18.335599999999999      12.287800000000001                 13.8628
    56   2                 14.1531      18.263300000000001                 19.8383
    57   2      20.128599999999999      12.287800000000001                 19.8383
    58   2                 14.1531      6.3122999999999996                 19.8383
    59   2                  8.1776      12.287800000000001                 19.8383
    60   2                 14.1531      18.263300000000001      7.8872999999999998
    61   2      20.128599999999999      12.287800000000001      7.8872999999999998
    62   2                 14.1531      6.3122999999999996      7.8872999999999998
    63   2      8.0920000000000005                 12.2836      7.8349000000000002
    64   2      20.128599999999999      18.263300000000001                 13.8628
    65   2      20.128599999999999      6.3122999999999996                 13.8628
    66   2                  8.1776      6.3122999999999996                 13.8628
    67   2                  8.1776      18.263300000000001                 13.8628
    68   2                 16.2209      16.337599999999998      19.979299999999999
    69   2                 16.2209      18.404299999999999      17.912600000000001
    70   2      20.269600000000001      14.355600000000001      17.912600000000001
    71   2                 18.2029      14.355600000000001      19.979299999999999
    72   2                 18.2029      18.404299999999999                 15.9306
    73   2      20.269600000000001      16.337599999999998                 15.9306
    74   2                 18.2029      10.220000000000001      19.979299999999999
    75   2      20.269600000000001      10.220000000000001      17.912600000000001
    76   2                 16.2209      6.1712999999999996      17.912600000000001
    77   2                 16.2209      8.2378999999999998      19.979299999999999
    78   2      20.269600000000001      8.2378999999999998                 15.9306
    79   2                 18.2029      6.1712999999999996                 15.9306
    80   2                 12.0853      8.2378999999999998      19.979299999999999
    81   2                 12.0853      6.1712999999999996      17.912600000000001
    82   2                  8.0366      10.220000000000001      17.912600000000001
    83   2      10.103199999999999      10.220000000000001      19.979299999999999
    84   2      10.103300000000001      6.1712999999999996                 15.9306
    85   2                  8.0366      8.2379999999999995                 15.9306
    86   2                 12.0853      16.337599999999998      19.979299999999999
    87   2                 12.0853      18.404299999999999      17.912600000000001
    88   2                  8.0366      14.355600000000001      17.912600000000001
    89   2      10.103199999999999      14.355600000000001      19.979299999999999
    90   2      10.103199999999999      18.404299999999999                 15.9306
    91   2                  8.0366      16.337599999999998                 15.9306
    92   2                 16.2209      16.337599999999998      7.7462999999999997
    93   2                 16.2209      18.404299999999999      9.8129000000000008
    94   2      20.269600000000001      14.355600000000001      9.8129000000000008
    95   2                 18.2029      14.355600000000001      7.7462999999999997
    96   2                 18.2029      18.404299999999999                  11.795
    97   2      20.269600000000001      16.337599999999998                  11.795
    98   2                 18.2029      10.220000000000001      7.7462999999999997
    99   2      20.269600000000001      10.220000000000001      9.8129000000000008
   100   2                 16.2209      6.1712999999999996      9.8129000000000008
   101   2                 16.2209      8.2378999999999998      7.7462999999999997
   102   2      20.269600000000001      8.2378999999999998                  11.795
   103   2                 18.2029      6.1712999999999996                  11.795
   104   2                 12.0853      8.2378999999999998      7.7462999999999997
   105   2                 12.0853      6.1712999999999996      9.8129000000000008
   106   2      8.0434999999999999                  10.231      9.8339999999999996
   107   2      10.107200000000001                 10.2384      7.7675999999999998
   108   2      10.103300000000001      6.1712999999999996                  11.795
   109   2                  8.0366      8.2379999999999995                  11.795
   110   2                 12.0853      16.337599999999998      7.7462999999999997
   111   2                 12.0853      18.404299999999999      9.8129000000000008
   112   2      8.0427999999999997                 14.3513      9.8449000000000009
   113   2                 10.1198                 14.3421      7.7660999999999998
   114   2      10.103199999999999      18.404299999999999                  11.795
   115   2                  8.0366      16.337599999999998                  11.795
   116   2                 14.1531                 14.3185      20.150600000000001
   117   2      12.122400000000001      12.287800000000001      20.150600000000001
   118   2      16.183800000000002      12.287800000000001      20.150600000000001
   119   2                 14.1531      10.257099999999999      20.150600000000001
   120   2                 14.1531                 14.3185      7.5750000000000002
   121   2                 12.1219      12.286199999999999      7.6026999999999996
   122   2      16.183800000000002      12.287800000000001      7.5750000000000002
   123   2                 14.1531      10.257099999999999      7.5750000000000002
   124   2                 14.1531      18.575600000000001      11.832100000000001
   125   2      12.122400000000001      18.575600000000001                 13.8628
   126   2      16.183700000000002      18.575600000000001                 13.8628
   127   2                 14.1531      18.575600000000001                 15.8935
   128   2                 14.1531                       6      11.832100000000001
   129   2      12.122400000000001                       6                 13.8628
   130   2      16.183800000000002                       6                 13.8628
   131   2                 14.1531                       6                 15.8935
   132   2      7.8653000000000004                 14.3185                 13.8628
   133   2      7.8879999999999999      12.286799999999999      11.833600000000001
   134   2      7.8653000000000004      12.287800000000001                 15.8935
   135   2      7.8653000000000004      10.257099999999999                 13.8628
   136   2      20.440899999999999                 14.3185                 13.8628
   137   2      20.440899999999999      12.287800000000001      11.832100000000001
   138   2      20.440899999999999      12.287800000000001                 15.8935
   139   2      20.440899999999999      10.257099999999999                 13.8628
   140   2      18.355499999999999      16.490200000000002      18.065200000000001
   141   2      18.355499999999999      8.0853999999999999      18.065200000000001
   142   2      9.9506999999999994      8.0853999999999999      18.065200000000001
   143   2      9.9506999999999994      16.490200000000002      18.065200000000001
   144   2      18.355499999999999      16.490200000000002      9.6603999999999992
   145   2      18.355499999999999      8.0853999999999999      9.6603999999999992
   146   2      9.9506999999999994      8.0853999999999999      9.6603999999999992
   147   2      9.9506999999999994      16.490200000000002      9.6603999999999992
