LAMMPS data file via write_data, version 12 Jun 2025, timestep = 0, units = metal

147 atoms
2 atom types

0 50 xlo xhi
0 50 ylo yhi
0 50 zlo zhi

Masses

1 107.87
2 196.97

Atoms # atomic

1 1 14.1531 12.2878 13.8628 0 0 0
2 1 14.1531 14.3295 15.9045 0 0 0
3 1 16.1948 12.2878 15.9045 0 0 0
4 1 14.1531 10.246 15.9045 0 0 0
5 1 12.1113 12.2878 15.9045 0 0 0
6 1 14.1531 14.3295 11.821 0 0 0
7 1 16.1948 12.2878 11.821 0 0 0
8 1 14.1531 10.246 11.821 0 0 0
9 1 12.1113 12.2878 11.821 0 0 0
10 1 16.1948 14.3295 13.8628 0 0 0
11 1 16.1948 10.246 13.8628 0 0 0
12 1 12.1113 10.246 13.8628 0 0 0
13 1 12.1113 14.3295 13.8628 0 0 0
14 1 14.1531 16.3352 17.9102 0 0 0
15 1 18.2005 12.2878 17.9102 0 0 0
16 1 14.1531 8.2404 17.9102 0 0 0
17 1 10.1057 12.2878 17.9102 0 0 0
18 1 14.1531 16.3352 9.8154 0 0 0
19 1 18.2005 12.2878 9.8154 0 0 0
20 1 14.1531 8.2404 9.8154 0 0 0
21 1 10.0581 12.2871 9.7721 0 0 0
22 1 18.2005 16.3352 13.8628 0 0 0
23 1 18.2005 8.2404 13.8628 0 0 0
24 1 10.1057 8.2404 13.8628 0 0 0
25 1 10.1057 16.3352 13.8628 0 0 0
26 1 16.1853 14.32 17.9687 0 0 0
27 1 16.1853 16.3937 15.895 0 0 0
28 1 18.259 14.32 15.895 0 0 0
29 1 16.1853 10.2556 17.9687 0 0 0
30 1 18.259 10.2556 15.895 0 0 0
31 1 16.1853 8.1819 15.895 0 0 0
32 1 12.1209 10.2556 17.9687 0 0 0
33 1 12.1209 8.1819 15.895 0 0 0
34 1 10.0472 10.2556 15.895 0 0 0
35 1 12.1209 14.32 17.9687 0 0 0
36 1 12.1209 16.3937 15.895 0 0 0
37 1 10.0472 14.32 15.895 0 0 0
38 1 16.1853 14.32 9.7569 0 0 0
39 1 16.1853 16.3937 11.8306 0 0 0
40 1 18.259 14.32 11.8306 0 0 0
41 1 16.1853 10.2556 9.7569 0 0 0
42 1 18.259 10.2556 11.8306 0 0 0
43 1 16.1853 8.1819 11.8306 0 0 0
44 1 12.1209 10.2556 9.7569 0 0 0
45 1 12.1209 8.1819 11.8306 0 0 0
46 1 10.0472 10.2556 11.8306 0 0 0
47 1 12.1209 14.32 9.7569 0 0 0
48 1 12.1209 16.3937 11.8306 0 0 0
49 1 10.0472 14.32 11.8306 0 0 0
50 1 14.1531 12.2878 18.0453 0 0 0
51 1 14.1531 12.2878 9.6802 0 0 0
52 1 14.1531 16.4703 13.8628 0 0 0
53 1 14.1531 8.1052 13.8628 0 0 0
54 1 9.9705 12.2878 13.8628 0 0 0
55 1 18.3356 12.2878 13.8628 0 0 0
56 2 14.1531 18.2633 19.8383 0 0 0
57 2 20.1286 12.2878 19.8383 0 0 0
58 2 14.1531 6.3123 19.8383 0 0 0
59 2 8.1776 12.2878 19.8383 0 0 0
60 2 14.1531 18.2633 7.8873 0 0 0
61 2 20.1286 12.2878 7.8873 0 0 0
62 2 14.1531 6.3123 7.8873 0 0 0
63 2 8.092 12.2836 7.8349 0 0 0
64 2 20.1286 18.2633 13.8628 0 0 0
65 2 20.1286 6.3123 13.8628 0 0 0
66 2 8.1776 6.3123 13.8628 0 0 0
67 2 8.1776 18.2633 13.8628 0 0 0
68 2 16.2209 16.3376 19.9793 0 0 0
69 2 16.2209 18.4043 17.9126 0 0 0
70 2 20.2696 14.3556 17.9126 0 0 0
71 2 18.2029 14.3556 19.9793 0 0 0
72 2 18.2029 18.4043 15.9306 0 0 0
73 2 20.2696 16.3376 15.9306 0 0 0
74 2 18.2029 10.22 19.9793 0 0 0
75 2 20.2696 10.22 17.9126 0 0 0
76 2 16.2209 6.1713 17.9126 0 0 0
77 2 16.2209 8.2379 19.9793 0 0 0
78 2 20.2696 8.2379 15.9306 0 0 0
79 2 18.2029 6.1713 15.9306 0 0 0
80 2 12.0853 8.2379 19.9793 0 0 0
81 2 12.0853 6.1713 17.9126 0 0 0
82 2 8.0366 10.22 17.9126 0 0 0
83 2 10.1032 10.22 19.9793 0 0 0
84 2 10.1033 6.1713 15.9306 0 0 0
85 2 8.0366 8.238 15.9306 0 0 0
86 2 12.0853 16.3376 19.9793 0 0 0
87 2 12.0853 18.4043 17.9126 0 0 0
88 2 8.0366 14.3556 17.9126 0 0 0
89 2 10.1032 14.3556 19.9793 0 0 0
90 2 10.1032 18.4043 15.9306 0 0 0
91 2 8.0366 16.3376 15.9306 0 0 0
92 2 16.2209 16.3376 7.7463 0 0 0
93 2 16.2209 18.4043 9.8129 0 0 0
94 2 20.2696 14.3556 9.8129 0 0 0
95 2 18.2029 14.3556 7.7463 0 0 0
96 2 18.2029 18.4043 11.795 0 0 0
97 2 20.2696 16.3376 11.795 0 0 0
98 2 18.2029 10.22 7.7463 0 0 0
99 2 20.2696 10.22 9.8129 0 0 0
100 2 16.2209 6.1713 9.8129 0 0 0
101 2 16.2209 8.2379 7.7463 0 0 0
102 2 20.2696 8.2379 11.795 0 0 0
103 2 18.2029 6.1713 11.795 0 0 0
104 2 12.0853 8.2379 7.7463 0 0 0
105 2 12.0853 6.1713 9.8129 0 0 0
106 2 8.0435 10.231 9.834 0 0 0
107 2 10.1072 10.2384 7.7676 0 0 0
108 2 10.1033 6.1713 11.795 0 0 0
109 2 8.0366 8.238 11.795 0 0 0
110 2 12.0853 16.3376 7.7463 0 0 0
111 2 12.0853 18.4043 9.8129 0 0 0
112 2 8.0428 14.3513 9.8449 0 0 0
113 2 10.1198 14.3421 7.7661 0 0 0
114 2 10.1032 18.4043 11.795 0 0 0
115 2 8.0366 16.3376 11.795 0 0 0
116 2 14.1531 14.3185 20.1506 0 0 0
117 2 12.1224 12.2878 20.1506 0 0 0
118 2 16.1838 12.2878 20.1506 0 0 0
119 2 14.1531 10.2571 20.1506 0 0 0
120 2 14.1531 14.3185 7.575 0 0 0
121 2 12.1219 12.2862 7.6027 0 0 0
122 2 16.1838 12.2878 7.575 0 0 0
123 2 14.1531 10.2571 7.575 0 0 0
124 2 14.1531 18.5756 11.8321 0 0 0
125 2 12.1224 18.5756 13.8628 0 0 0
126 2 16.1837 18.5756 13.8628 0 0 0
127 2 14.1531 18.5756 15.8935 0 0 0
128 2 14.1531 6 11.8321 0 0 0
129 2 12.1224 6 13.8628 0 0 0
130 2 16.1838 6 13.8628 0 0 0
131 2 14.1531 6 15.8935 0 0 0
132 2 7.8653 14.3185 13.8628 0 0 0
133 2 7.888 12.2868 11.8336 0 0 0
134 2 7.8653 12.2878 15.8935 0 0 0
135 2 7.8653 10.2571 13.8628 0 0 0
136 2 20.4409 14.3185 13.8628 0 0 0
137 2 20.4409 12.2878 11.8321 0 0 0
138 2 20.4409 12.2878 15.8935 0 0 0
139 2 20.4409 10.2571 13.8628 0 0 0
140 2 18.3555 16.4902 18.0652 0 0 0
141 2 18.3555 8.0854 18.0652 0 0 0
142 2 9.9507 8.0854 18.0652 0 0 0
143 2 9.9507 16.4902 18.0652 0 0 0
144 2 18.3555 16.4902 9.6604 0 0 0
145 2 18.3555 8.0854 9.6604 0 0 0
146 2 9.9507 8.0854 9.6604 0 0 0
147 2 9.9507 16.4902 9.6604 0 0 0

Velocities

1 0 0 0
2 0 0 0
3 0 0 0
4 0 0 0
5 0 0 0
6 0 0 0
7 0 0 0
8 0 0 0
9 0 0 0
10 0 0 0
11 0 0 0
12 0 0 0
13 0 0 0
14 0 0 0
15 0 0 0
16 0 0 0
17 0 0 0
18 0 0 0
19 0 0 0
20 0 0 0
21 0 0 0
22 0 0 0
23 0 0 0
24 0 0 0
25 0 0 0
26 0 0 0
27 0 0 0
28 0 0 0
29 0 0 0
30 0 0 0
31 0 0 0
32 0 0 0
33 0 0 0
34 0 0 0
35 0 0 0
36 0 0 0
37 0 0 0
38 0 0 0
39 0 0 0
40 0 0 0
41 0 0 0
42 0 0 0
43 0 0 0
44 0 0 0
45 0 0 0
46 0 0 0
47 0 0 0
48 0 0 0
49 0 0 0
50 0 0 0
51 0 0 0
52 0 0 0
53 0 0 0
54 0 0 0
55 0 0 0
56 0 0 0
57 0 0 0
58 0 0 0
59 0 0 0
60 0 0 0
61 0 0 0
62 0 0 0
63 0 0 0
64 0 0 0
65 0 0 0
66 0 0 0
67 0 0 0
68 0 0 0
69 0 0 0
70 0 0 0
71 0 0 0
72 0 0 0
73 0 0 0
74 0 0 0
75 0 0 0
76 0 0 0
77 0 0 0
78 0 0 0
79 0 0 0
80 0 0 0
81 0 0 0
82 0 0 0
83 0 0 0
84 0 0 0
85 0 0 0
86 0 0 0
87 0 0 0
88 0 0 0
89 0 0 0
90 0 0 0
91 0 0 0
92 0 0 0
93 0 0 0
94 0 0 0
95 0 0 0
96 0 0 0
97 0 0 0
98 0 0 0
99 0 0 0
100 0 0 0
101 0 0 0
102 0 0 0
103 0 0 0
104 0 0 0
105 0 0 0
106 0 0 0
107 0 0 0
108 0 0 0
109 0 0 0
110 0 0 0
111 0 0 0
112 0 0 0
113 0 0 0
114 0 0 0
115 0 0 0
116 0 0 0
117 0 0 0
118 0 0 0
119 0 0 0
120 0 0 0
121 0 0 0
122 0 0 0
123 0 0 0
124 0 0 0
125 0 0 0
126 0 0 0
127 0 0 0
128 0 0 0
129 0 0 0
130 0 0 0
131 0 0 0
132 0 0 0
133 0 0 0
134 0 0 0
135 0 0 0
136 0 0 0
137 0 0 0
138 0 0 0
139 0 0 0
140 0 0 0
141 0 0 0
142 0 0 0
143 0 0 0
144 0 0 0
145 0 0 0
146 0 0 0
147 0 0 0
