ITEM: TIMESTEP
2000
ITEM: NUMBER OF ATOMS
201
ITEM: BOX BOUNDS pp pp pp
0.0000000000000000e+00 3.6359999999999999e+01
0.0000000000000000e+00 3.6359999999999999e+01
0.0000000000000000e+00 3.6359999999999999e+01
ITEM: ATOMS id type xs ys zs fx fy fz
83 1 0.50183 0.302465 0.356286 -0.185543 0.269341 -0.178469
34 1 0.383017 0.418277 0.336489 0.275428 0.240414 -0.0167178
35 1 0.444418 0.358851 0.335469 -0.317854 0.170868 0.729459
36 1 0.44846 0.412717 0.280945 -0.0401483 -0.0392835 -0.199593
95 1 0.503184 0.354793 0.289238 0.393596 0.0607343 0.050811
96 1 0.505434 0.418354 0.333775 0.301635 -0.207069 0.244848
97 1 0.563064 0.351915 0.344159 -0.230964 0.300783 0.104497
98 1 0.565556 0.410622 0.282034 -0.212453 -0.432238 0.211331
156 1 0.616607 0.409458 0.343796 0.138551 0.191413 -0.178637
10 1 0.327141 0.479887 0.329229 0.410144 0.216892 -0.0730238
50 1 0.391731 0.466408 0.276511 0.0138576 0.113674 0.0984412
51 1 0.396805 0.534526 0.313012 -0.257173 0.133796 0.356486
14 1 0.335985 0.55115 0.367991 -0.292918 -0.24355 0.0831504
52 1 0.451607 0.471605 0.328607 -0.153164 0.619002 0.14334
113 1 0.512136 0.465134 0.269665 -0.0386029 0.0813356 0.23821
53 1 0.455978 0.517623 0.266744 -0.0330266 0.0118718 -0.277331
114 1 0.510431 0.534224 0.320141 0.519443 -1.19737 0.418733
115 1 0.56818 0.471696 0.331878 -0.0789106 0.102431 -0.283118
168 1 0.62137 0.461614 0.277016 0.437507 -0.0263776 0.3127
116 1 0.572408 0.516421 0.264256 -0.222288 0.273522 0.343209
169 1 0.628353 0.533036 0.323285 -0.0770566 -0.420405 0.124452
170 1 0.673854 0.465881 0.338409 -0.228794 0.135571 0.215358
69 1 0.391241 0.603675 0.362074 0.500428 -0.0112141 0.0927213
72 1 0.459013 0.654205 0.361118 -0.336837 0.0814225 -0.242973
68 1 0.457458 0.58361 0.30818 -0.458424 0.828266 0.128367
131 1 0.520727 0.573847 0.259897 -0.255277 0.316554 -0.483154
132 1 0.515946 0.647841 0.309754 0.130735 -0.38083 0.0332613
134 2 0.509927 0.593992 0.368697 0.438798 0.302236 0.078963
133 1 0.571326 0.586935 0.314582 0.0540719 0.069854 0.249887
184 1 0.621932 0.592668 0.374015 0.172834 -0.154357 0.203551
137 1 0.573936 0.65476 0.364169 -0.139731 -0.35304 0.0678215
147 1 0.518547 0.70969 0.361896 -0.114088 0.0129423 -0.112983
26 1 0.372767 0.327481 0.457172 0.296913 0.137424 0.00275169
27 1 0.43428 0.270325 0.472944 -0.157665 0.289761 0.155244
28 1 0.438521 0.321191 0.408927 -0.147934 -0.172326 -0.0492409
84 1 0.489788 0.261658 0.421487 -0.118991 0.019007 -0.418067
85 1 0.492035 0.324398 0.469685 0.0175204 0.605309 -0.252635
86 1 0.537358 0.266593 0.477818 0.798999 -0.181659 0.552681
87 1 0.55439 0.309199 0.413115 0.0833244 0.181035 0.143027
152 1 0.605938 0.319293 0.479376 -0.252705 0.0580594 -0.38493
3 1 0.325843 0.391824 0.452365 -0.251029 -0.67803 0.230476
4 1 0.323363 0.434464 0.389814 0.30755 -0.108215 -0.148041
37 1 0.380741 0.372678 0.396638 0.135419 0.271608 -0.0167784
38 2 0.383032 0.440736 0.447442 0.0239849 0.0761462 -0.314016
39 2 0.436959 0.38495 0.456346 0.0947996 -0.158746 -0.163274
40 2 0.44742 0.427856 0.391236 -0.202781 -0.105747 -0.104316
99 2 0.498379 0.368554 0.397571 0.181648 0.0645669 0.0515377
100 2 0.502883 0.429583 0.450541 -0.597608 0.747802 0.056118
101 2 0.554621 0.375781 0.457087 0.0358061 -0.637134 0.485471
102 2 0.5564 0.4242 0.394267 0.279096 -0.216056 -0.0896039
157 1 0.613698 0.365135 0.406399 -0.0754335 -0.159813 0.275225
158 2 0.611921 0.427847 0.461498 0.289451 0.012118 -0.630068
159 1 0.666641 0.371729 0.471083 -0.400556 -0.327072 -0.356761
160 1 0.674033 0.414311 0.399668 -0.224008 0.0908888 0.0917217
193 1 0.724166 0.418366 0.459389 0.165863 -0.156921 0.503009
2 1 0.270434 0.445548 0.447036 -0.187791 0.142997 -0.0271437
11 1 0.270241 0.49432 0.384039 0.255582 0.15094 0.0700525
13 1 0.329275 0.500296 0.433379 -0.182399 0.0437841 0.0775996
15 1 0.270993 0.513041 0.489919 0.0863672 -0.0323357 -0.117056
54 2 0.389804 0.490001 0.377652 -0.195089 -0.458294 -0.035396
56 2 0.441577 0.490368 0.436922 0.741175 0.198765 0.0621611
58 2 0.384252 0.506195 0.489955 -0.189289 -0.227853 0.746757
55 2 0.388228 0.551841 0.42669 -0.0558204 0.512292 -0.108446
57 2 0.44962 0.541647 0.376627 -0.0345138 -0.173136 -0.391526
117 2 0.510406 0.486671 0.383491 -1.02249 -0.664207 0.149533
118 2 0.505237 0.547844 0.432493 0.0702708 -0.316176 0.615945
119 2 0.559168 0.486483 0.447998 -0.528377 0.123481 0.0461797
171 2 0.618335 0.475829 0.39572 0.286847 -0.220016 -0.192959
120 2 0.568112 0.532992 0.378792 0.0996959 0.873329 -0.247597
172 2 0.612891 0.541621 0.440588 0.904024 0.124973 0.196553
173 1 0.672814 0.478788 0.452754 -0.307407 -0.0579597 0.0389376
196 1 0.73067 0.468814 0.405952 0.089023 -0.0326105 -0.824376
174 1 0.68163 0.528849 0.388438 -0.371654 0.00358159 -0.035567
197 1 0.736342 0.528966 0.448839 -0.070628 0.386554 -0.0191625
178 1 0.675002 0.542274 0.493808 -0.16374 0.495302 0.243126
12 1 0.275523 0.564547 0.424943 0.329526 -0.20236 0.132499
22 1 0.331484 0.619265 0.412822 0.291393 -0.145294 0.325193
18 1 0.331198 0.564959 0.483577 0.00480547 0.339151 -0.360062
23 1 0.278475 0.629148 0.474841 0.53707 -0.277354 -0.0360362
61 2 0.442862 0.557093 0.484521 0.484556 -0.0919697 0.385231
73 2 0.395078 0.616526 0.473673 -0.447542 0.0549274 0.206162
71 2 0.452327 0.605811 0.42156 -0.227763 0.0272624 0.0212397
135 1 0.510327 0.660661 0.419235 0.481801 -0.162347 -0.0597346
138 2 0.501324 0.614045 0.485643 0.445811 -0.45236 0.0344505
136 2 0.563547 0.600066 0.430548 -0.143926 0.517175 -0.139097
185 1 0.625436 0.654009 0.424474 -0.156767 -0.169878 -0.168797
124 2 0.559028 0.558049 0.498129 -0.360058 -0.389173 -0.296854
187 2 0.620163 0.607174 0.488349 0.170756 0.00184664 -0.125363
186 1 0.681836 0.596176 0.427187 -0.277826 -0.154981 0.182477
201 1 0.733695 0.59705 0.484237 -0.201207 0.0788026 0.260564
190 1 0.681803 0.660013 0.475952 0.12989 -0.462534 0.32725
25 1 0.344586 0.677175 0.469092 -0.11498 -0.231802 -0.199833
70 1 0.401115 0.668034 0.412342 -0.40699 -0.145589 -0.0289572
81 1 0.400965 0.733497 0.466336 0.0660698 -0.389902 -0.122603
76 1 0.455168 0.671228 0.469176 -0.579816 0.640832 0.218001
80 1 0.456171 0.722331 0.41009 0.109813 -0.0412879 -0.114491
149 1 0.508975 0.732601 0.466446 0.0674301 -0.204925 -0.114234
192 1 0.627804 0.713785 0.475469 -0.150759 0.206246 -0.156333
141 1 0.560616 0.671049 0.478691 0.474716 -0.853648 0.0122926
148 1 0.573297 0.711858 0.418454 -0.100724 0.325185 -0.293319
29 1 0.374143 0.287436 0.519747 0.191539 -0.0445961 0.466294
31 1 0.427063 0.290153 0.584888 -0.0626392 0.0143853 -0.165797
88 1 0.484126 0.274025 0.53657 -0.197863 0.103947 -0.405794
90 1 0.530554 0.280787 0.595794 0.91598 -0.137365 -0.405682
91 1 0.542849 0.32614 0.531514 0.260017 0.330128 -0.192378
153 1 0.598194 0.272139 0.539552 -0.260088 -0.450292 -0.332375
154 1 0.606113 0.327678 0.585623 -0.159953 0.672679 0.599809
155 1 0.662278 0.322258 0.534769 -0.0683859 0.040558 -0.0912505
1 1 0.31639 0.340849 0.513876 0.30493 0.212522 0.0728896
5 1 0.264805 0.398165 0.513527 0.12086 0.264112 -0.241212
7 1 0.316211 0.410487 0.569118 0.574892 -0.582729 0.005951
30 1 0.37196 0.346216 0.573811 -4.97912e-05 0.128579 0.245981
32 1 0.435336 0.339558 0.518026 -0.190068 -0.588189 0.4363
41 2 0.379608 0.392725 0.513055 -0.202718 0.455513 -0.0464261
43 2 0.4353 0.398622 0.571352 -0.254884 0.294726 0.259204
89 1 0.486992 0.343275 0.583459 -0.0885121 -0.422912 -0.164556
103 2 0.495064 0.390641 0.518452 0.210954 -0.245531 -0.0428886
105 2 0.55536 0.39069 0.580601 -0.473699 -0.0575365 -0.594937
106 2 0.555024 0.440929 0.513111 -0.402554 -0.0176573 0.311147
161 2 0.608274 0.383576 0.525429 -0.0427582 -0.492188 0.00521293
162 2 0.612724 0.444071 0.574435 0.181875 0.263373 -0.304105
164 1 0.666644 0.435665 0.519758 0.281921 0.0456632 -0.128806
163 1 0.669877 0.382372 0.589952 -0.494993 -0.0516316 -0.0142317
194 1 0.716077 0.376703 0.529025 0.328211 -0.0119677 -0.166632
195 1 0.722163 0.436359 0.576066 0.00733041 0.435771 0.0940224
6 1 0.268113 0.467994 0.558062 -0.198701 -0.0762759 -0.238507
8 1 0.323115 0.451642 0.502343 0.3601 0.279159 0.18055
9 1 0.323525 0.469244 0.617008 -0.0481278 0.420807 0.0791296
17 1 0.326069 0.517632 0.548188 0.311395 -0.188571 0.03501
19 1 0.271136 0.530719 0.601829 0.0998797 -0.00885191 0.153074
42 2 0.383769 0.458996 0.564001 -0.826446 -0.536958 -0.377981
44 2 0.441274 0.449474 0.503871 -0.184915 -0.146266 0.269426
48 2 0.433093 0.462147 0.623206 0.289394 -0.329931 0.0234729
62 2 0.381511 0.526485 0.614441 -0.276381 -0.240584 -0.224652
60 2 0.434859 0.512021 0.559261 0.760474 0.0380019 -0.556126
104 2 0.494175 0.453816 0.56648 0.0433952 -0.00751293 0.25889
125 2 0.495104 0.517309 0.616746 0.399946 -0.0756198 -0.66544
123 2 0.555471 0.508246 0.559469 -0.0693244 -0.081379 0.353568
110 2 0.555065 0.456 0.622793 -0.55594 0.376767 0.214809
121 2 0.498636 0.501077 0.502947 0.126026 0.0633848 -0.490477
179 2 0.612015 0.510444 0.617639 -0.0545751 0.347264 -0.169299
175 2 0.612792 0.493197 0.505869 0.296934 0.353421 0.262861
177 1 0.6734 0.501213 0.56159 -0.288287 -0.111609 -0.0620032
198 1 0.73367 0.479575 0.508421 -0.287535 0.0969619 0.225749
200 1 0.7268 0.505286 0.61504 -0.25346 -0.0199804 0.115891
199 1 0.733561 0.552911 0.551969 -0.113313 -0.297179 -0.143221
16 1 0.275783 0.578496 0.535518 0.0700361 0.00925216 0.161959
21 1 0.328388 0.581024 0.597978 0.0390567 0.277657 -0.000198776
24 1 0.337553 0.632243 0.535164 -0.438107 -0.370385 -0.297178
59 2 0.384604 0.568838 0.541848 0.277943 0.282918 -0.107443
75 2 0.441919 0.634899 0.535447 0.384984 -0.974158 0.0604848
77 1 0.38982 0.633942 0.592388 -0.215964 0.107093 0.182439
65 2 0.442272 0.577394 0.599407 -0.16178 0.459932 0.239966
122 2 0.496168 0.56413 0.54828 0.27759 0.293889 -0.0321167
142 2 0.501864 0.636857 0.594035 -0.275868 -0.457507 0.198018
128 2 0.557575 0.575699 0.60678 -0.223908 -0.671327 -0.223088
140 2 0.56081 0.621298 0.543102 -0.0592344 0.148089 -0.163102
176 2 0.616092 0.561106 0.552754 0.0959667 -0.322279 -0.0467834
191 1 0.62296 0.626981 0.596612 -0.200477 -0.387818 0.626349
182 1 0.670676 0.564542 0.608614 0.0658581 -0.137105 0.320332
189 1 0.681557 0.607703 0.543722 -0.28803 0.297955 -0.229446
74 1 0.387817 0.687831 0.531213 0.277219 0.484696 -0.0555949
79 1 0.445572 0.691865 0.586252 0.202753 0.211459 0.330731
82 1 0.453676 0.737536 0.521704 -0.126949 -0.128621 0.00690178
139 1 0.507307 0.680917 0.529562 -0.278342 -0.505509 -0.0785992
151 1 0.514474 0.739473 0.57118 -0.430108 0.435095 0.965714
145 1 0.566416 0.683244 0.592162 0.0460141 0.228221 -0.286462
150 1 0.566228 0.734457 0.519868 0.546448 -0.072932 -0.108833
188 1 0.626842 0.66991 0.537124 -0.153852 0.192375 -0.291448
92 1 0.48199 0.292382 0.647854 -0.472071 0.104012 0.0677449
33 1 0.423143 0.345797 0.636907 -0.00626315 0.454227 -0.00160398
45 1 0.364572 0.40481 0.633222 0.536658 -0.00918492 -0.249276
47 1 0.430358 0.408772 0.686887 -0.186549 0.348637 -0.321761
107 2 0.494575 0.401617 0.629655 -0.459597 0.784862 -0.278343
94 1 0.550364 0.343317 0.640039 -0.30509 -0.401033 0.257803
109 1 0.547236 0.408538 0.686309 -0.0576137 0.0347011 0.419112
93 1 0.48503 0.355428 0.687848 0.128903 0.0771771 0.439761
111 1 0.48679 0.420798 0.742505 0.0059974 -0.07634 -0.434746
165 1 0.608449 0.393989 0.639565 0.29464 -0.0563585 -0.151386
20 1 0.324396 0.535966 0.668695 -0.346663 -0.162436 -0.744233
66 1 0.376947 0.537711 0.719439 0.701285 -0.0117637 0.154616
64 1 0.43891 0.530381 0.665811 -0.268995 -0.33259 0.505471
46 1 0.376525 0.472215 0.675882 -0.00632109 -0.0634432 -0.0178969
49 1 0.434127 0.47728 0.728822 -0.121019 0.0977939 -0.127789
129 1 0.48989 0.530698 0.732108 0.17694 -0.118034 -0.395635
112 1 0.54476 0.471197 0.738945 0.124615 0.238025 -0.468224
108 1 0.492167 0.466458 0.675635 0.0371385 0.0382178 0.301274
127 1 0.552246 0.520535 0.669515 -0.0808072 0.100591 0.384519
167 1 0.664801 0.451279 0.632168 0.377932 -0.0348042 -0.237169
181 1 0.659416 0.513426 0.678814 0.050638 0.452256 -0.143266
183 1 0.600823 0.529961 0.733052 -0.216758 -0.178765 -0.442215
166 1 0.609119 0.456984 0.685179 -0.488231 0.234807 0.263108
78 1 0.438892 0.642188 0.653751 0.00313138 0.0808121 -0.431206
67 1 0.439021 0.588256 0.715262 -0.00317246 0.215004 -0.0040227
63 1 0.379031 0.592735 0.65954 0.180428 -0.137904 0.0092591
146 1 0.493358 0.647245 0.704857 0.395243 -0.139905 0.00811875
126 1 0.49381 0.584677 0.657403 0.554989 0.0254798 0.226355
130 1 0.543763 0.58571 0.723821 0.00128294 -0.0132977 -0.498555
180 1 0.604955 0.579583 0.669304 0.525379 -0.530898 -0.000381327
144 1 0.559307 0.635166 0.652395 -0.501731 0.581551 0.362032
143 1 0.505204 0.69973 0.64459 -0.0599552 -0.42543 -0.308919
